 Gaussian 16, Revision C.01,
 Gaussian 16:  ES64L-G16RevC.01  3-Jul-2019

 -------------------------------------------
 #p RHF/6-31g(d) nosymm int=nobasistransform
 -------------------------------------------

 -----
 title
 -----
 Symbolic Z-matrix:
 Charge =  0 Multiplicity = 1

                          Input orientation:
 ---------------------------------------------------------------------
 Center     Atomic      Atomic             Coordinates (Angstroms)
 Number     Number       Type             X           Y           Z
 ---------------------------------------------------------------------
      1          6           0       -3.673296   -1.520570   -1.298474
      2          6           0       -2.309063   -1.564018   -1.521446
      3          6           0       -1.442123   -0.614214   -0.930244
      4          6           0       -1.989857    0.371963   -0.058369
      5          6           0       -3.385055    0.381082    0.167201
      6          6           0       -4.215398   -0.537318   -0.451963
      7          6           0       -0.012877   -0.611404   -1.150851
      8          6           0       -1.059104    1.259047    0.620211
      9          6           0        0.118051    1.627576   -0.151841
     10          6           0        0.648281    0.669116   -1.060814
     11          6           0        1.818509    0.985082   -1.790612
     12          1           0        2.226677    0.262367   -2.489540
     13          6           0        2.427763    2.218148   -1.655627
     14          6           0        1.906381    3.164256   -0.756336
     15          6           0        0.782456    2.865692   -0.006974
     16          1           0       -4.325738   -2.240900   -1.784520
     17          1           0       -1.904762   -2.318485   -2.187898
     18          1           0       -3.819949    1.135209    0.814541
     19          1           0       -5.288502   -0.494805   -0.285358
     20          1           0        3.309763    2.455172   -2.244460
     21          1           0        2.385822    4.133562   -0.649076
     22          1           0        0.393538    3.609944    0.679415
     23          6           0       -0.194070   -0.247575    1.895472
     24          6           0        0.486580   -1.184398    1.087169
     25          6           0        1.949780   -1.101829    1.008085
     26          8           0        2.630971   -0.136497    1.306587
     27          6           0        0.602908   -1.716097   -1.977704
     28          1           0        0.192510   -2.691663   -1.705138
     29          1           0        0.411766   -1.561074   -3.049082
     30          1           0        1.682232   -1.772421   -1.831526
     31          6           0       -1.603193    2.290454    1.590304
     32          1           0       -0.818736    2.655145    2.259894
     33          1           0       -2.012510    3.158459    1.056359
     34          1           0       -2.402072    1.886554    2.214497
     35          8           0        2.496238   -2.269693    0.554161
     36          6           0        3.928454   -2.282334    0.500349
     37          1           0        4.199949   -3.268921    0.121299
     38          1           0        4.301652   -1.498721   -0.164876
     39          1           0        4.354676   -2.126007    1.495694
     40          1           0        0.055614   -2.168279    0.933439
     41          1           0        0.449620    0.485634    2.375553
     42          6           0       -1.359732   -0.742557    2.725001
     43          1           0       -1.954865    0.070311    3.149882
     44          1           0       -2.026094   -1.385806    2.141754
     45          1           0       -0.980628   -1.336381    3.567942
 ---------------------------------------------------------------------

 SCF Done:  E(RHF) =  -957.697491454     A.U. after   17 cycles

 Alpha  occ. eigenvalues --  -20.59087 -20.52450 -11.36114 -11.27854 -11.27502
 Alpha  occ. eigenvalues --  -11.25837 -11.25003 -11.24456 -11.24045 -11.23831
 Alpha  occ. eigenvalues --  -11.23827 -11.23773 -11.23608 -11.23386 -11.23342
 Alpha  occ. eigenvalues --  -11.23150 -11.22995 -11.22875 -11.22732 -11.22706
 Alpha  occ. eigenvalues --  -11.22703 -11.22633 -11.21962  -1.43144  -1.32834
 Alpha  occ. eigenvalues --   -1.18657  -1.13969  -1.08989  -1.08603  -1.05857
 Alpha  occ. eigenvalues --   -1.01335  -1.00154  -0.98446  -0.97859  -0.97450
 Alpha  occ. eigenvalues --   -0.92248  -0.88820  -0.87151  -0.83058  -0.80667
 Alpha  occ. eigenvalues --   -0.80269  -0.76312  -0.74242  -0.72894  -0.70869
 Alpha  occ. eigenvalues --   -0.68715  -0.66481  -0.65425  -0.64849  -0.63973
 Alpha  occ. eigenvalues --   -0.63401  -0.61866  -0.60875  -0.60441  -0.59609
 Alpha  occ. eigenvalues --   -0.58883  -0.58045  -0.57728  -0.57090  -0.55469
 Alpha  occ. eigenvalues --   -0.54692  -0.54224  -0.53386  -0.53265  -0.52870
 Alpha  occ. eigenvalues --   -0.52403  -0.51933  -0.51127  -0.50764  -0.49509
 Alpha  occ. eigenvalues --   -0.49229  -0.48295  -0.46796  -0.45713  -0.43945
 Alpha  occ. eigenvalues --   -0.42394  -0.41790  -0.37311  -0.33184  -0.30764
 Alpha  occ. eigenvalues --   -0.29660  -0.25753
 Alpha virt. eigenvalues --    0.06351   0.12695   0.13690   0.15472   0.19207
 Alpha virt. eigenvalues --    0.21864   0.22743   0.23719   0.25188   0.25907
 Alpha virt. eigenvalues --    0.26308   0.27757   0.28005   0.29104   0.29446

 Mulliken charges:
               1
     1  C   -0.215317
     2  C   -0.205659
     3  C    0.018849
     4  C    0.073817
     5  C   -0.226133
     6  C   -0.198318
     7  C   -0.017329
     8  C   -0.123347
     9  C    0.085909
    10  C    0.017186
    11  C   -0.198884
    12  H    0.203352
    13  C   -0.201332
    14  C   -0.192874
    15  C   -0.211621
    16  H    0.201867
    17  H    0.209375
    18  H    0.206499
    19  H    0.203515
    20  H    0.199447
    21  H    0.201376
    22  H    0.204269
    23  C   -0.169251
    24  C   -0.336896
    25  C    0.835976
    26  O   -0.618670
    27  C   -0.518830
    28  H    0.186167
    29  H    0.180365
    30  H    0.200386
    31  C   -0.519563
    32  H    0.182046
    33  H    0.182283
    34  H    0.176019
    35  O   -0.651433
    36  C   -0.179008
    37  H    0.174328
    38  H    0.178314
    39  H    0.180312
    40  H    0.212970
    41  H    0.234630
    42  C   -0.488067
    43  H    0.163721
    44  H    0.183155
    45  H    0.176399
 Sum of Mulliken charges =  -0.00000

 Dipole moment (field-independent basis, Debye):
    X=             -1.2432    Y=             -0.8603    Z=             -0.7587  Tot=              1.6915
 Quadrupole moment (field-independent basis, Debye-Ang):
   XX=           -127.8637   YY=           -129.2904   ZZ=           -134.6517
   XY=             -2.5176   XZ=             -8.9115   YZ=              5.9427

 Normal termination of Gaussian 16 at Sun Jun  2 12:50:33 2024.
