                               Psi4 1.7a1.dev80

  ==> Input File <==

--------------------------------------------------------------------------
import forte

psi4.core.IOManager.shared_object().set_default_path('/data/home/xzzeng/soft/forte/tests/my_test/DAR_1/ccpvdz/is_cas_3/tmp/')

molecule{
 C                 -0.55455400   -0.48439700    0.00000600
 C                 -0.45441900   -1.81693400    0.00115200
 H                 -1.33803100   -2.44347500    0.00148700
 H                  0.51519700   -2.29911700    0.00194300
 C                  0.55455500    0.48440100    0.00000400
 C                  0.45442500    1.81693900    0.00115100
 H                  1.33804000    2.44347500    0.00148800
 H                 -0.51518800    2.29912700    0.00194800
 Cl                 2.17199100   -0.23428500   -0.00061000
 Cl                -2.17199400    0.23428200   -0.00061000
 C                  6.46970150  -20.72714110   -6.38187287
 C                  7.80534650  -20.72714010   -6.38121887
 C                  6.00551750  -22.14419310   -6.38168487
 C                  8.26953350  -22.14419210   -6.38136387
 O                  9.38320750  -22.58505810   -6.38209987
 O                  4.89184050  -22.58505810   -6.38172987
 O                  7.13752450  -22.95737410   -6.38102387
 H                  5.77672350  -19.89594010   -6.38208987
 H                  8.49832350  -19.89593810   -6.38073387
units angstrom
}

set globals{
 basis             cc-pvdz
 reference         rhf
# scf_type          pk
 scf_type          df
 d_convergence     8
 e_convergence     10
 mcscf_maxiter     1000
 frozen_docc       [ 5]
 restricted_docc   [ 50]
 active            [ 2]
}

set forte{
  active_space_solver    fci
  correlation_solver     dsrg-mrpt2
  int_type               df
  dsrg_s                 0.6
  frozen_docc            [ 5]
  restricted_docc        [ 50]
  active                 [ 2]
  dsrg_hbar_seq          true
  relax_ref            once
}

Emcscf, wfn = energy('casscf',return_wfn=True)
energy('forte',ref_wfn=wfn)

--------------------------------------------------------------------------

    Molecular point group: c1

    Geometry (in Angstrom), charge = 0, multiplicity = 1:

       Center              X                  Y                   Z               Mass
    ------------   -----------------  -----------------  -----------------  -----------------
         C           -3.734451775403     9.329279951804     2.843149936552    12.000000000000
         C           -3.634316775403     7.996742951804     2.844295936552    12.000000000000
         H           -4.517928775403     7.370201951804     2.844630936552     1.007825032230
         H           -2.664700775403     7.514559951804     2.845086936552     1.007825032230
         C           -2.625342775403    10.298077951804     2.843147936552    12.000000000000
         C           -2.725472775403    11.630615951804     2.844294936552    12.000000000000
         H           -1.841857775403    12.257151951804     2.844631936552     1.007825032230
         H           -3.695085775403    12.112803951804     2.845091936552     1.007825032230
         CL          -1.007906775403     9.579391951804     2.842533936552    34.968852682000
         CL          -5.351891775403    10.047958951804     2.842533936552    34.968852682000
         C            3.289803724597   -10.913464148196    -3.538728933448    12.000000000000
         C            4.625448724597   -10.913463148196    -3.538074933448    12.000000000000
         C            2.825619724597   -12.330516148196    -3.538540933448    12.000000000000
         C            5.089635724597   -12.330515148196    -3.538219933448    12.000000000000
         O            6.203309724597   -12.771381148196    -3.538955933448    15.994914619570
         O            1.711942724597   -12.771381148196    -3.538585933448    15.994914619570
         O            3.957626724597   -13.143697148196    -3.537879933448    15.994914619570
         H            2.596825724597   -10.082263148196    -3.538945933448     1.007825032230
         H            5.318425724597   -10.082261148196    -3.537589933448     1.007825032230

  Charge       = 0
  Multiplicity = 1
  Basis Set: CC-PVDZ
    Blend: CC-PVDZ
  Basis Set: (CC-PVDZ AUX)
    Blend: CC-PVDZ-JKFIT

    Orbital Energies [Eh]
    ---------------------

    Doubly Occupied:

       1A   -104.843407     2A   -104.843343     3A    -20.648088
       4A    -20.594171     5A    -20.594167     6A    -11.428904
       7A    -11.428883     8A    -11.330995     9A    -11.330250
      10A    -11.318618    11A    -11.316948    12A    -11.266941
      13A    -11.266929    14A    -10.570178    15A    -10.570113
      16A     -8.037751    17A     -8.037685    18A     -8.034382
      19A     -8.034315    20A     -8.034200    21A     -8.034133
      22A     -1.517522    23A     -1.442039    24A     -1.396574
      25A     -1.200326    26A     -1.155288    27A     -1.140586
      28A     -1.027703    29A     -1.026017    30A     -0.958570
      31A     -0.859523    32A     -0.858367    33A     -0.828390
      34A     -0.732705    35A     -0.723969    36A     -0.693504
      37A     -0.689095    38A     -0.679854    39A     -0.668608
      40A     -0.655525    41A     -0.638722    42A     -0.614511
      43A     -0.593758    44A     -0.574398    45A     -0.573978
      46A     -0.553675    47A     -0.517718    48A     -0.503997
      49A     -0.502605    50A     -0.496056    51A     -0.477787
      52A     -0.472638    53A     -0.452388    54A     -0.444631
      55A     -0.407818    56A     -0.348990

  @DF-RHF Final Energy: -1450.02402748080544
    Total Energy =                      -1450.0240274808054437
 Dipole X            :         -1.3763566            1.3751143           -0.0012423
 Dipole Y            :          2.1239989           -0.2569411            1.8670577
 Dipole Z            :          1.2234651           -1.2214634            0.0020017
 Magnitude           :                                                    1.8670592
  Basis Set: (CC-PVDZ AUX)
    Blend: CC-PVDZ-JKFIT
   @MCSCF Final Energy: -1450.029878596362778

   ==> Energetics <==

    SCF energy =         -1450.024027480805444
    Total MCSCF energy = -1450.029878596362778

   ==> MCSCF root 0 information <==

    MCSCF Root 0 energy =  -1450.029878596362323

   Active Space Natural occupation numbers:

         A   1.986103         A   0.013897

   The 4 most important determinants:

    *   1   -0.996502  (    0,    0)  56AX
    *   2    0.083342  (    1,    1)  57AX
    *   3    0.004307  (    0,    1)  56AA 57AB
    *   4    0.004307  (    1,    0)  56AB 57AA

Properties will be evaluated at   0.000000,   0.000000,   0.000000 [a0]

Properties computed using the CASSCF density matrix

 Multipole Moments:

 ------------------------------------------------------------------------------------
     Multipole            Electronic (a.u.)      Nuclear  (a.u.)        Total (a.u.)

 Dipole X            :         -1.3763414            1.3751143           -0.0012271
 Dipole Y            :          2.1239997           -0.2569411            1.8670586
 Dipole Z            :          1.2234994           -1.2214634            0.0020360
 Magnitude           :                                                    1.8670601
  Basis Set: CC-PVDZ
    Blend: CC-PVDZ
  Basis Set: (CC-PVDZ AUX)
    Blend: CC-PVDZ-RI
*** Psi4 exiting successfully. Buy a developer a beer!
