                               Psi4 1.7a1.dev80

  ==> Input File <==

--------------------------------------------------------------------------
import forte

psi4.core.IOManager.shared_object().set_default_path('/data/home/xzzeng/soft/forte/tests/my_test/DAR_3/6-31gd/is/tmp/')

memory 500 gb

molecule{
 C   12.921400   10.424399   13.287800
 O   11.582401    9.910999   13.287601
 C   10.604200   10.851801   13.287601
 O   10.829000   12.047000   13.287800
 C    9.268800   10.215000   13.287601
 C    8.155800   10.959001   13.287800
 C    6.758400   10.425600   13.287800
 H    8.277599   12.041800   13.287800
 H   13.572599    9.549399   13.288200
 H   13.100400   11.036000   12.399000
 H   13.099999   11.036401   14.176399
 H    6.736000    9.331400   13.287800
 H    6.206200   10.783800   14.167000
 H    6.206000   10.783800   12.408800
 H    9.238000    9.128799   13.287601
 C   13.929800   11.816601    6.545600
 C   12.743401   12.498199    6.596800
 C   11.478601   11.823999    6.656800
 C   11.487200   10.374599    6.659800
 C   12.755600    9.707400    6.608600
 C   13.937000   10.397000    6.552600
 C   10.252000   12.524600    6.701600
 C   10.276600    9.646999    6.701600
 C    9.049800   10.347600    6.656800
 C    9.041201   11.797000    6.659800
 C    7.773000   12.464200    6.608600
 H    7.747800   13.547400    6.592800
 C    6.591400   11.774599    6.552600
 C    6.598600   10.354800    6.545600
 C    7.785000    9.673201    6.596800
 H   14.868200   12.362400    6.492600
 H   12.767200   13.581000    6.567400
 H   12.780800    8.624200    6.592600
 H   14.880400    9.859600    6.506200
 H    5.648000   12.312000    6.506400
 H    5.660400    9.809000    6.492400
 H    7.761400    8.590600    6.567200
 C   10.318399    8.134200    6.773000
 H    9.378000    7.708200    7.123200
 H   10.541200    7.681600    5.797000
 H   11.089601    7.793600    7.470400
 C   10.210000   14.037200    6.773000
 H    9.439000   14.378000    7.470600
 H   11.150599   14.463400    7.122600
 H    9.986800   14.489799    5.797000

units angstrom
}

set globals{
 basis             6-31g(d)
 reference         rhf
# scf_type          pk
 scf_type          df
 d_convergence     8
 e_convergence     10
 mcscf_maxiter           1000
 frozen_docc       [ 2]
 restricted_docc   [ 78]
 active            [ 4]
}

set forte{
  active_space_solver    fci
  correlation_solver     dsrg-mrpt2
  int_type               diskdf
  dsrg_s                 0.5
  frozen_docc            [ 2]
  restricted_docc        [ 78]
  active                 [ 4]
#  dsrg_hbar_seq          true
  relax_ref              once
}

#energy('hf')
Emcscf, wfn = energy('casscf',return_wfn=True)
energy('forte',ref_wfn=wfn)

--------------------------------------------------------------------------

    Molecular point group: c1

    Geometry (in Angstrom), charge = 0, multiplicity = 1:

       Center              X                  Y                   Z               Mass
    ------------   -----------------  -----------------  -----------------  -----------------
         C            2.719082782608    -0.533701783572     4.476872484820    12.000000000000
         O            1.380083782608    -1.047101783572     4.476673484820    15.994914619570
         C            0.401882782608    -0.106299783572     4.476673484820    12.000000000000
         O            0.626682782608     1.088899216428     4.476872484820    15.994914619570
         C           -0.933517217392    -0.743100783572     4.476673484820    12.000000000000
         C           -2.046517217392     0.000900216428     4.476872484820    12.000000000000
         C           -3.443917217392    -0.532500783572     4.476872484820    12.000000000000
         H           -1.924718217392     1.083699216428     4.476872484820     1.007825032230
         H            3.370281782608    -1.408701783572     4.477272484820     1.007825032230
         H            2.898082782608     0.077899216428     3.588072484820     1.007825032230
         H            2.897681782608     0.078300216428     5.365471484820     1.007825032230
         H           -3.466317217392    -1.626700783572     4.476872484820     1.007825032230
         H           -3.996117217392    -0.174300783572     5.356072484820     1.007825032230
         H           -3.996317217392    -0.174300783572     3.597872484820     1.007825032230
         H           -0.964317217392    -1.829301783572     4.476673484820     1.007825032230
         C            3.727482782608     0.858500216428    -2.265327515180    12.000000000000
         C            2.541083782608     1.540098216428    -2.214127515180    12.000000000000
         C            1.276283782608     0.865898216428    -2.154127515180    12.000000000000
         C            1.284882782608    -0.583501783572    -2.151127515180    12.000000000000
         C            2.553282782608    -1.250700783572    -2.202327515180    12.000000000000
         C            3.734682782608    -0.561100783572    -2.258327515180    12.000000000000
         C            0.049682782608     1.566499216428    -2.109327515180    12.000000000000
         C            0.074282782608    -1.311101783572    -2.109327515180    12.000000000000
         C           -1.152517217392    -0.610500783572    -2.154127515180    12.000000000000
         C           -1.161116217392     0.838899216428    -2.151127515180    12.000000000000
         C           -2.429317217392     1.506099216428    -2.202327515180    12.000000000000
         H           -2.454517217392     2.589299216428    -2.218127515180     1.007825032230
         C           -3.610917217392     0.816498216428    -2.258327515180    12.000000000000
         C           -3.603717217392    -0.603300783572    -2.265327515180    12.000000000000
         C           -2.417317217392    -1.284899783572    -2.214127515180    12.000000000000
         H            4.665882782608     1.404299216428    -2.318327515180     1.007825032230
         H            2.564882782608     2.622899216428    -2.243527515180     1.007825032230
         H            2.578482782608    -2.333900783572    -2.218327515180     1.007825032230
         H            4.678082782608    -1.098500783572    -2.304727515180     1.007825032230
         H           -4.554317217392     1.353899216428    -2.304527515180     1.007825032230
         H           -4.541917217392    -1.149100783572    -2.318527515180     1.007825032230
         H           -2.440917217392    -2.367500783572    -2.243727515180     1.007825032230
         C            0.116081782608    -2.823900783572    -2.037927515180    12.000000000000
         H           -0.824317217392    -3.249900783572    -1.687727515180     1.007825032230
         H            0.338882782608    -3.276500783572    -3.013927515180     1.007825032230
         H            0.887283782608    -3.164500783572    -1.340527515180     1.007825032230
         C            0.007682782608     3.079099216428    -2.037927515180    12.000000000000
         H           -0.763317217392     3.419899216428    -1.340327515180     1.007825032230
         H            0.948281782608     3.505299216428    -1.688327515180     1.007825032230
         H           -0.215517217392     3.531698216428    -3.013927515180     1.007825032230

  Charge       = 0
  Multiplicity = 1
  Basis Set: 6-31G(D)
    Blend: 6-31G(D)
  Basis Set: (6-31G(D) AUX)
    Blend: CC-PVDZ-JKFIT

    Orbital Energies [Eh]
    ---------------------

    Doubly Occupied:

       1A    -20.599598     2A    -20.538038     3A    -11.375415
       4A    -11.278747     5A    -11.260910     6A    -11.243324
       7A    -11.243241     8A    -11.241684     9A    -11.241286
      10A    -11.239621    11A    -11.239549    12A    -11.236988
      13A    -11.234439    14A    -11.233598    15A    -11.233051
      16A    -11.232881    17A    -11.232355    18A    -11.231900
      19A    -11.231277    20A    -11.231203    21A    -11.230849
      22A    -11.224386    23A    -11.223196    24A     -1.443397
      25A     -1.341103    26A     -1.177207    27A     -1.135837
      28A     -1.089593    29A     -1.081751    30A     -1.080308
      31A     -1.013823    32A     -0.996331    33A     -0.992485
      34A     -0.978297    35A     -0.970334    36A     -0.938434
      37A     -0.891657    38A     -0.864844    39A     -0.836348
      40A     -0.811555    41A     -0.801578    42A     -0.758476
      43A     -0.742509    44A     -0.734177    45A     -0.709676
      46A     -0.703391    47A     -0.661782    48A     -0.661406
      49A     -0.656303    50A     -0.641480    51A     -0.632317
      52A     -0.615903    53A     -0.608349    54A     -0.599151
      55A     -0.592884    56A     -0.590506    57A     -0.582297
      58A     -0.578085    59A     -0.569229    60A     -0.567930
      61A     -0.555519    62A     -0.543659    63A     -0.539086
      64A     -0.539078    65A     -0.528310    66A     -0.526442
      67A     -0.525634    68A     -0.519067    69A     -0.512370
      70A     -0.509389    71A     -0.487046    72A     -0.482309
      73A     -0.469381    74A     -0.451002    75A     -0.448741
      76A     -0.436031    77A     -0.398776    78A     -0.379669
      79A     -0.368441    80A     -0.336294    81A     -0.300753
      82A     -0.241672

  @DF-RHF Final Energy:  -957.76829122906884
    Total Energy =                       -957.7682912290688364
 Dipole X            :          3.6550966           -4.0353337           -0.3802372
 Dipole Y            :          1.4897111           -2.0491255           -0.5594144
 Dipole Z            :         -5.2912958            5.2559095           -0.0353863
 Magnitude           :                                                    0.6773308
  Basis Set: (6-31G(D) AUX)
    Blend: CC-PVDZ-JKFIT
   @MCSCF Final Energy: -957.802684786726331

   ==> Energetics <==

    SCF energy =         -957.768291229068836
    Total MCSCF energy = -957.802684786726331

   ==> MCSCF root 0 information <==

    MCSCF Root 0 energy =  -957.802684786726331

   Active Space Natural occupation numbers:

         A   1.962973         A   1.918212         A   0.080100
         A   0.038715

   The 20 most important determinants:

    *   1    0.970260  (    0,    0)  81AX 82AX
    *   2   -0.171839  (    1,    1)  81AX 83AX
    *   3   -0.089432  (    4,    4)  82AX 84AX
    *   4    0.067662  (    0,    5)  81AA 82AA 83AB 84AB
    *   5    0.067662  (    5,    0)  81AB 82AB 83AA 84AA
    *   6   -0.059229  (    2,    3)  81AB 82AA 83AA 84AB
    *   7   -0.059229  (    3,    2)  81AA 82AB 83AB 84AA
    *   8   -0.048891  (    3,    3)  81AX 84AX
    *   9   -0.039319  (    2,    2)  82AX 83AX
    *  10    0.028504  (    5,    5)  83AX 84AX
    *  11    0.008433  (    1,    4)  81AA 82AB 83AA 84AB
    *  12    0.008433  (    4,    1)  81AB 82AA 83AB 84AA
    *  13   -0.001249  (    1,    2)  81AA 82AB 83AX
    *  14   -0.001249  (    2,    1)  81AB 82AA 83AX
    *  15   -0.000790  (    1,    3)  81AX 83AA 84AB

 Dipole X            :          3.6534968           -4.0353337           -0.3818369
 Dipole Y            :          1.4882317           -2.0491255           -0.5608938
 Dipole Z            :         -5.2894381            5.2559095           -0.0335286
 Magnitude           :                                                    0.6793567
  Basis Set: 6-31G(D)
    Blend: 6-31G(D)
  Basis Set: (6-31G(D) AUX)
    Blend: CC-PVDZ-RI
*** Psi4 exiting successfully. Buy a developer a beer!
