 Gaussian 16, Revision C.01,
 Gaussian 16:  ES64L-G16RevC.01  3-Jul-2019

 --------------------
 #opt b3lyp/6-31+g(d)
 --------------------

 ----
 01fs
 ----
 Symbolic Z-matrix:
 Charge =  0 Multiplicity = 1

 SCF Done:  E(RB3LYP) =  -1454.44005758     A.U. after   15 cycles
 SCF Done:  E(RB3LYP) =  -1454.49366400     A.U. after   14 cycles
 SCF Done:  E(RB3LYP) =  -1454.53582159     A.U. after   15 cycles
 SCF Done:  E(RB3LYP) =  -1454.54433963     A.U. after   14 cycles
 SCF Done:  E(RB3LYP) =  -1454.54596241     A.U. after   13 cycles
 SCF Done:  E(RB3LYP) =  -1454.54657835     A.U. after   13 cycles
 SCF Done:  E(RB3LYP) =  -1454.54733030     A.U. after   13 cycles
 SCF Done:  E(RB3LYP) =  -1454.54808872     A.U. after   14 cycles
 SCF Done:  E(RB3LYP) =  -1454.54946282     A.U. after   14 cycles
 SCF Done:  E(RB3LYP) =  -1454.55033569     A.U. after   14 cycles
 SCF Done:  E(RB3LYP) =  -1454.55092609     A.U. after   13 cycles
 SCF Done:  E(RB3LYP) =  -1454.55098181     A.U. after   12 cycles
 SCF Done:  E(RB3LYP) =  -1454.55099900     A.U. after   12 cycles
 SCF Done:  E(RB3LYP) =  -1454.55101031     A.U. after   11 cycles
 SCF Done:  E(RB3LYP) =  -1454.55102652     A.U. after   11 cycles
 SCF Done:  E(RB3LYP) =  -1454.55103722     A.U. after   11 cycles
 SCF Done:  E(RB3LYP) =  -1454.55104211     A.U. after   11 cycles
 SCF Done:  E(RB3LYP) =  -1454.55104286     A.U. after    9 cycles
 Optimization completed.
    -- Stationary point found.

                         Standard orientation:
 ---------------------------------------------------------------------
 Center     Atomic      Atomic             Coordinates (Angstroms)
 Number     Number       Type             X           Y           Z
 ---------------------------------------------------------------------
      1          6           0        1.291324   -0.769971    1.013088
      2          6           0        1.290486    0.771406    1.012739
      3          6           0       -0.105348    1.425821    1.136025
      4          6           0       -1.151848    0.670425    0.347984
      5          6           0       -1.150969   -0.671219    0.347771
      6          6           0       -0.103980   -1.425318    1.136544
      7          6           0        1.958164   -1.144693   -0.310125
      8          6           0        1.956680    1.146123   -0.310850
      9          1           0       -0.395174    1.452863    2.195821
     10          8           0        2.159138    2.239610   -0.755139
     11          8           0        2.162189   -2.238240   -0.753576
     12         17           0       -2.357232   -1.630088   -0.465954
     13         17           0       -2.359708    1.627942   -0.465048
     14          8           0        2.340863    0.000724   -0.992267
     15          1           0        1.931173   -1.173812    1.806088
     16          1           0        1.930200    1.176240    1.805352
     17          1           0       -0.045445    2.462554    0.795238
     18          1           0       -0.043501   -2.462397    0.796976
     19          1           0       -0.393843   -1.451171    2.196356
 ---------------------------------------------------------------------

 The electronic state is 1-A.
 Alpha  occ. eigenvalues -- -101.57679-101.57678 -19.25089 -19.18970 -19.18969
 Alpha  occ. eigenvalues --  -10.36265 -10.36264 -10.28506 -10.28423 -10.26150
 Alpha  occ. eigenvalues --  -10.26130 -10.24745 -10.24743  -9.49154  -9.49153
 Alpha  occ. eigenvalues --   -7.25581  -7.25577  -7.24603  -7.24602  -7.24532
 Alpha  occ. eigenvalues --   -7.24529  -1.16830  -1.10151  -1.06342  -0.93506
 Alpha  occ. eigenvalues --   -0.87808  -0.87807  -0.79939  -0.78426  -0.71004
 Alpha  occ. eigenvalues --   -0.69236  -0.65579  -0.60080  -0.55243  -0.55156
 Alpha  occ. eigenvalues --   -0.52014  -0.50584  -0.49592  -0.48967  -0.47942
 Alpha  occ. eigenvalues --   -0.47640  -0.45308  -0.44819  -0.43529  -0.42344
 Alpha  occ. eigenvalues --   -0.41879  -0.39944  -0.38544  -0.38188  -0.35646
 Alpha  occ. eigenvalues --   -0.35428  -0.34165  -0.33143  -0.32399  -0.30579
 Alpha  occ. eigenvalues --   -0.26606
 Alpha virt. eigenvalues --   -0.05667  -0.04672  -0.03814  -0.02726  -0.00642
 Alpha virt. eigenvalues --    0.00635   0.00941   0.01793   0.02297   0.03903
 Alpha virt. eigenvalues --    0.03961   0.04706   0.04788   0.05435   0.06957

 Mulliken charges:
               1
     1  C    0.048372
     2  C    0.047926
     3  C   -1.076235
     4  C    0.265454
     5  C    0.265550
     6  C   -1.076525
     7  C    0.359435
     8  C    0.359844
     9  H    0.243000
    10  O   -0.411152
    11  O   -0.411109
    12  Cl   0.197528
    13  Cl   0.197515
    14  O   -0.270913
    15  H    0.243860
    16  H    0.243865
    17  H    0.265312
    18  H    0.265273
    19  H    0.243000
 Sum of Mulliken charges =  -0.00000

 Dipole moment (field-independent basis, Debye):
    X=             -0.3290    Y=              0.0016    Z=              5.5331  Tot=              5.5429
 Quadrupole moment (field-independent basis, Debye-Ang):
   XX=            -96.2658   YY=            -97.5174   ZZ=            -85.5998
   XY=              0.0083   XZ=              8.8728   YZ=              0.0080

 Normal termination of Gaussian 16 at Thu Feb  9 00:04:24 2023.
