 Gaussian 16, Revision C.01,
 Gaussian 16:  ES64L-G16RevC.01  3-Jul-2019

 ------------------------------------------
 #p RHF/cc-pvdz nosymm int=nobasistransform
 ------------------------------------------

 -----
 title
 -----
 Symbolic Z-matrix:
 Charge =  0 Multiplicity = 1

                          Input orientation:
 ---------------------------------------------------------------------
 Center     Atomic      Atomic             Coordinates (Angstroms)
 Number     Number       Type             X           Y           Z
 ---------------------------------------------------------------------
      1          6           0       -1.737892   -0.695062    0.982391
      2          6           0       -1.738139    0.694490    0.982429
      3          6           0        0.356620    1.422220    1.530028
      4          6           0        1.180091    0.710657    0.676602
      5          6           0        1.180338   -0.710331    0.676600
      6          6           0        0.357064   -1.422178    1.529983
      7          6           0       -1.719189   -1.141108   -0.434892
      8          6           0       -1.719632    1.140631   -0.434831
      9          1           0        0.286183    2.499337    1.426653
     10          1           0        0.286936   -2.499309    1.426548
     11          8           0       -1.804047    2.240753   -0.904682
     12          8           0       -1.803117   -2.241242   -0.904808
     13          1           0        0.118513   -1.021871    2.506959
     14          1           0        0.118222    1.021801    2.506997
     15          1           0       -2.144346   -1.340806    1.749622
     16          1           0       -2.144786    1.340058    1.749707
     17         17           0        2.001717   -1.586731   -0.591033
     18         17           0        2.001106    1.587334   -0.591073
     19          8           0       -1.583371   -0.000185   -1.230579
 ---------------------------------------------------------------------

 SCF Done:  E(RHF) =  -1449.95482551     A.U. after   16 cycles

 Alpha  occ. eigenvalues -- -104.85449-104.85449 -20.63590 -20.57526 -20.57526
 Alpha  occ. eigenvalues --  -11.41609 -11.41607 -11.34918 -11.34817 -11.30809
 Alpha  occ. eigenvalues --  -11.30684 -11.30666 -11.30665 -10.58121 -10.58118
 Alpha  occ. eigenvalues --   -8.04881  -8.04881  -8.04519  -8.04519  -8.04510
 Alpha  occ. eigenvalues --   -8.04510  -1.50185  -1.42557  -1.37990  -1.22652
 Alpha  occ. eigenvalues --   -1.15297  -1.13762  -1.07210  -1.01819  -0.94898
 Alpha  occ. eigenvalues --   -0.90177  -0.84860  -0.81114  -0.74585  -0.71714
 Alpha  occ. eigenvalues --   -0.70772  -0.68681  -0.67543  -0.67355  -0.64478
 Alpha  occ. eigenvalues --   -0.63175  -0.61957  -0.59506  -0.58385  -0.56938
 Alpha  occ. eigenvalues --   -0.56253  -0.56233  -0.49771  -0.49366  -0.48853
 Alpha  occ. eigenvalues --   -0.48632  -0.46789  -0.45972  -0.45706  -0.36297
 Alpha  occ. eigenvalues --   -0.35618
 Alpha virt. eigenvalues --    0.04081   0.04931   0.14337   0.15535   0.16253
 Alpha virt. eigenvalues --    0.19297   0.19401   0.21876   0.22301   0.24193
 Alpha virt. eigenvalues --    0.25107   0.27607   0.31975   0.33276   0.34949

 Mulliken charges:
               1
     1  C   -0.149994
     2  C   -0.149990
     3  C    0.059223
     4  C   -0.137467
     5  C   -0.137471
     6  C    0.059229
     7  C    0.497338
     8  C    0.497333
     9  H    0.103682
    10  H    0.103683
    11  O   -0.313678
    12  O   -0.313681
    13  H    0.085074
    14  H    0.085073
    15  H    0.080735
    16  H    0.080732
    17  Cl  -0.026939
    18  Cl  -0.026940
    19  O   -0.395942
 Sum of Mulliken charges =  -0.00000

 Dipole moment (field-independent basis, Debye):
    X=             -0.1231    Y=             -0.0002    Z=              7.2030  Tot=              7.2040
 Quadrupole moment (field-independent basis, Debye-Ang):
   XX=            -91.9681   YY=            -96.4276   ZZ=            -84.1109
   XY=              0.0019   XZ=             -9.2071   YZ=             -0.0017

 Normal termination of Gaussian 16 at Thu Feb  9 09:22:27 2023.
