 Gaussian 16, Revision C.01,
 Gaussian 16:  ES64L-G16RevC.01  3-Jul-2019

 ------------------------------------------
 #p RHF/cc-pvdz nosymm int=nobasistransform
 ------------------------------------------

 -----
 title
 -----
 Symbolic Z-matrix:
 Charge =  0 Multiplicity = 1

                          Input orientation:
 ---------------------------------------------------------------------
 Center     Atomic      Atomic             Coordinates (Angstroms)
 Number     Number       Type             X           Y           Z
 ---------------------------------------------------------------------
      1          6           0       -0.554554   -0.484397    0.000006
      2          6           0       -0.454419   -1.816934    0.001152
      3          1           0       -1.338031   -2.443475    0.001487
      4          1           0        0.515197   -2.299117    0.001943
      5          6           0        0.554555    0.484401    0.000004
      6          6           0        0.454425    1.816939    0.001151
      7          1           0        1.338040    2.443475    0.001488
      8          1           0       -0.515188    2.299127    0.001948
      9         17           0        2.171991   -0.234285   -0.000610
     10         17           0       -2.171994    0.234282   -0.000610
     11          6           0        6.469702  -20.727141   -6.381873
     12          6           0        7.805346  -20.727140   -6.381219
     13          6           0        6.005517  -22.144193   -6.381685
     14          6           0        8.269533  -22.144192   -6.381364
     15          8           0        9.383208  -22.585058   -6.382100
     16          8           0        4.891841  -22.585058   -6.381730
     17          8           0        7.137525  -22.957374   -6.381024
     18          1           0        5.776723  -19.895940   -6.382090
     19          1           0        8.498323  -19.895938   -6.380734
 ---------------------------------------------------------------------

 SCF Done:  E(RHF) =  -1450.02530782     A.U. after   15 cycles

 Alpha  occ. eigenvalues -- -104.84340-104.84334 -20.64805 -20.59413 -20.59412
 Alpha  occ. eigenvalues --  -11.42870 -11.42868 -11.33086 -11.33011 -11.31852
 Alpha  occ. eigenvalues --  -11.31685 -11.26689 -11.26687 -10.57017 -10.57010
 Alpha  occ. eigenvalues --   -8.03774  -8.03768  -8.03438  -8.03431  -8.03420
 Alpha  occ. eigenvalues --   -8.03413  -1.51745  -1.44197  -1.39650  -1.20027
 Alpha  occ. eigenvalues --   -1.15522  -1.14055  -1.02767  -1.02598  -0.95848
 Alpha  occ. eigenvalues --   -0.85948  -0.85833  -0.82835  -0.73270  -0.72394
 Alpha  occ. eigenvalues --   -0.69353  -0.68908  -0.67983  -0.66858  -0.65551
 Alpha  occ. eigenvalues --   -0.63868  -0.61448  -0.59374  -0.57443  -0.57396
 Alpha  occ. eigenvalues --   -0.55373  -0.51769  -0.50397  -0.50261  -0.49611
 Alpha  occ. eigenvalues --   -0.47780  -0.47261  -0.45240  -0.44464  -0.40780
 Alpha  occ. eigenvalues --   -0.34898
 Alpha virt. eigenvalues --    0.02518   0.08503   0.16584   0.17299   0.20153
 Alpha virt. eigenvalues --    0.20230   0.20763   0.21018   0.21930   0.22514
 Alpha virt. eigenvalues --    0.23814   0.25589   0.30052   0.31484   0.33761

 Mulliken charges:
               1
     1  C   -0.156503
     2  C    0.096941
     3  H    0.075075
     4  H    0.083758
     5  C   -0.156629
     6  C    0.097238
     7  H    0.075183
     8  H    0.084076
     9  Cl  -0.099777
    10  Cl  -0.099362
    11  C   -0.053428
    12  C   -0.053401
    13  C    0.460801
    14  C    0.460796
    15  O   -0.291604
    16  O   -0.291635
    17  O   -0.393962
    18  H    0.081203
    19  H    0.081230
 Sum of Mulliken charges =  -0.00000

 Dipole moment (field-independent basis, Debye):
    X=             -0.0032    Y=              4.7442    Z=              0.0051  Tot=              4.7442
 Quadrupole moment (field-independent basis, Debye-Ang):
   XX=           -101.5738   YY=           -286.5719   ZZ=            -90.0033
   XY=             34.9447   XZ=              0.0078   YZ=            -30.2462

 Normal termination of Gaussian 16 at Thu Feb  9 09:17:05 2023.
