 Gaussian 16, Revision C.01,
 Gaussian 16:  ES64L-G16RevC.01  3-Jul-2019

 -------------------------------------------
 #p RHF/6-31g(d) nosymm int=nobasistransform
 -------------------------------------------

 -----
 title
 -----
 Symbolic Z-matrix:
 Charge =  0 Multiplicity = 1

                          Input orientation:
 ---------------------------------------------------------------------
 Center     Atomic      Atomic             Coordinates (Angstroms)
 Number     Number       Type             X           Y           Z
 ---------------------------------------------------------------------
      1          6           0       12.921400   10.424399   13.287800
      2          8           0       11.582401    9.910999   13.287601
      3          6           0       10.604200   10.851801   13.287601
      4          8           0       10.829000   12.047000   13.287800
      5          6           0        9.268800   10.215000   13.287601
      6          6           0        8.155800   10.959001   13.287800
      7          6           0        6.758400   10.425600   13.287800
      8          1           0        8.277599   12.041800   13.287800
      9          1           0       13.572599    9.549399   13.288200
     10          1           0       13.100400   11.036000   12.399000
     11          1           0       13.099999   11.036401   14.176399
     12          1           0        6.736000    9.331400   13.287800
     13          1           0        6.206200   10.783800   14.167000
     14          1           0        6.206000   10.783800   12.408800
     15          1           0        9.238000    9.128799   13.287601
     16          6           0       13.929800   11.816601    6.545600
     17          6           0       12.743401   12.498199    6.596800
     18          6           0       11.478601   11.823999    6.656800
     19          6           0       11.487200   10.374599    6.659800
     20          6           0       12.755600    9.707400    6.608600
     21          6           0       13.937000   10.397000    6.552600
     22          6           0       10.252000   12.524600    6.701600
     23          6           0       10.276600    9.646999    6.701600
     24          6           0        9.049800   10.347600    6.656800
     25          6           0        9.041201   11.797000    6.659800
     26          6           0        7.773000   12.464200    6.608600
     27          1           0        7.747800   13.547400    6.592800
     28          6           0        6.591400   11.774599    6.552600
     29          6           0        6.598600   10.354800    6.545600
     30          6           0        7.785000    9.673201    6.596800
     31          1           0       14.868200   12.362400    6.492600
     32          1           0       12.767200   13.581000    6.567400
     33          1           0       12.780800    8.624200    6.592600
     34          1           0       14.880400    9.859600    6.506200
     35          1           0        5.648000   12.312000    6.506400
     36          1           0        5.660400    9.809000    6.492400
     37          1           0        7.761400    8.590600    6.567200
     38          6           0       10.318399    8.134200    6.773000
     39          1           0        9.378000    7.708200    7.123200
     40          1           0       10.541200    7.681600    5.797000
     41          1           0       11.089601    7.793600    7.470400
     42          6           0       10.210000   14.037200    6.773000
     43          1           0        9.439000   14.378000    7.470600
     44          1           0       11.150599   14.463400    7.122600
     45          1           0        9.986800   14.489799    5.797000
 ---------------------------------------------------------------------

 SCF Done:  E(RHF) =  -957.769588657     A.U. after   14 cycles

 Alpha  occ. eigenvalues --  -20.59957 -20.53803 -11.37522 -11.27874 -11.26086
 Alpha  occ. eigenvalues --  -11.24325 -11.24317 -11.24160 -11.24120 -11.23954
 Alpha  occ. eigenvalues --  -11.23947 -11.23698 -11.23437 -11.23354 -11.23299
 Alpha  occ. eigenvalues --  -11.23282 -11.23230 -11.23184 -11.23122 -11.23114
 Alpha  occ. eigenvalues --  -11.23079 -11.22438 -11.22319  -1.44334  -1.34106
 Alpha  occ. eigenvalues --   -1.17717  -1.13580  -1.08956  -1.08173  -1.08028
 Alpha  occ. eigenvalues --   -1.01380  -0.99630  -0.99247  -0.97828  -0.97032
 Alpha  occ. eigenvalues --   -0.93842  -0.89164  -0.86482  -0.83633  -0.81153
 Alpha  occ. eigenvalues --   -0.80156  -0.75846  -0.74250  -0.73416  -0.70966
 Alpha  occ. eigenvalues --   -0.70339  -0.66177  -0.66141  -0.65633  -0.64146
 Alpha  occ. eigenvalues --   -0.63230  -0.61589  -0.60834  -0.59915  -0.59287
 Alpha  occ. eigenvalues --   -0.59050  -0.58231  -0.57809  -0.56923  -0.56792
 Alpha  occ. eigenvalues --   -0.55550  -0.54365  -0.53910  -0.53907  -0.52829
 Alpha  occ. eigenvalues --   -0.52643  -0.52562  -0.51906  -0.51235  -0.50941
 Alpha  occ. eigenvalues --   -0.48704  -0.48234  -0.46935  -0.45098  -0.44875
 Alpha  occ. eigenvalues --   -0.43603  -0.39880  -0.37970  -0.36846  -0.33632
 Alpha  occ. eigenvalues --   -0.30078  -0.24169
 Alpha virt. eigenvalues --    0.06315   0.11890   0.12000   0.15927   0.20900
 Alpha virt. eigenvalues --    0.23257   0.23353   0.24964   0.25388   0.25466
 Alpha virt. eigenvalues --    0.26597   0.27300   0.27433   0.28073   0.28360

 Mulliken charges:
               1
     1  C   -0.182046
     2  O   -0.640573
     3  C    0.820526
     4  O   -0.608607
     5  C   -0.312518
     6  C   -0.098066
     7  C   -0.526218
     8  H    0.232323
     9  H    0.180081
    10  H    0.186297
    11  H    0.181300
    12  H    0.182183
    13  H    0.183435
    14  H    0.187273
    15  H    0.214610
    16  C   -0.212415
    17  C   -0.201267
    18  C   -0.022575
    19  C   -0.022450
    20  C   -0.205717
    21  C   -0.208843
    22  C    0.029802
    23  C    0.027281
    24  C   -0.021991
    25  C   -0.023650
    26  C   -0.204512
    27  H    0.210261
    28  C   -0.210130
    29  C   -0.212372
    30  C   -0.202939
    31  H    0.202411
    32  H    0.209565
    33  H    0.209227
    34  H    0.202121
    35  H    0.201894
    36  H    0.201332
    37  H    0.208289
    38  C   -0.519365
    39  H    0.180183
    40  H    0.180420
    41  H    0.180850
    42  C   -0.520213
    43  H    0.182125
    44  H    0.182848
    45  H    0.179830
 Sum of Mulliken charges =  -0.00000

 Dipole moment (field-independent basis, Debye):
    X=             -0.9661    Y=             -1.4214    Z=             -0.0900  Tot=              1.7210
 Quadrupole moment (field-independent basis, Debye-Ang):
   XX=           -134.0623   YY=           -159.2945   ZZ=           -146.0383
   XY=            -26.3400   XZ=            -14.1478   YZ=            -20.3807

 Normal termination of Gaussian 16 at Sun Jun  2 11:49:01 2024.
