                               Psi4 1.7a1.dev80

  ==> Input File <==

--------------------------------------------------------------------------
import forte

psi4.core.IOManager.shared_object().set_default_path('/data/home/xzzeng/soft/forte/tests/my_test/DAR_1/ccpvdz/ts_cas_4_3/tmp/')

molecule{
C -1.73789200 -0.69506200 0.98239100
C -1.73813900 0.69449000 0.98242900
C 0.35662000 1.42222000 1.53002800
C 1.18009100 0.71065700 0.67660200
C 1.18033800 -0.71033100 0.67660000
C 0.35706400 -1.42217800 1.52998300
C -1.71918900 -1.14110800 -0.43489200
C -1.71963200 1.14063100 -0.43483100
H 0.28618300 2.49933700 1.42665300
H 0.28693600 -2.49930900 1.42654800
O -1.80404700 2.24075300 -0.90468200
O -1.80311700 -2.24124200 -0.90480800
H 0.11851300 -1.02187100 2.50695900
H 0.11822200 1.02180100 2.50699700
H -2.14434600 -1.34080600 1.74962200
H -2.14478600 1.34005800 1.74970700
Cl 2.00171700 -1.58673100 -0.59103300
Cl 2.00110600 1.58733400 -0.59107300
O -1.58337100 -0.00018500 -1.23057900
}

set globals{
 basis             cc-pvdz
 reference         rhf
 scf_type          df
# scf_type          pk
 ci_diis           true
 d_convergence     8
 e_convergence     10
 mcscf_maxiter     1000
 frozen_docc       [ 15]
 restricted_docc   [ 40]
 active            [ 2]
}

set forte{
  active_space_solver    fci
  correlation_solver     dsrg-mrpt2
#  corr_level             ldsrg2
  int_type               df
  dsrg_s                 0.5
  frozen_docc            [ 15]
  restricted_docc        [ 40]
  active                 [ 2]
  dsrg_hbar_seq          true
  relax_ref              once
}

#Emcscf, wfn = energy('hf',return_wfn=True)
Emcscf, wfn = energy('casscf',return_wfn=True)
energy('forte',ref_wfn=wfn)

--------------------------------------------------------------------------

    Molecular point group: c1

    Geometry (in Angstrom), charge = 0, multiplicity = 1:

       Center              X                  Y                   Z               Mass
    ------------   -----------------  -----------------  -----------------  -----------------
         C           -1.771335707176    -0.695068080227     1.038796052588    12.000000000000
         C           -1.771582707176     0.694483919773     1.038834052588    12.000000000000
         C            0.323176292824     1.422213919773     1.586433052588    12.000000000000
         C            1.146647292824     0.710650919773     0.733007052588    12.000000000000
         C            1.146894292824    -0.710337080227     0.733005052588    12.000000000000
         C            0.323620292824    -1.422184080227     1.586388052588    12.000000000000
         C           -1.752632707176    -1.141114080227    -0.378486947412    12.000000000000
         C           -1.753075707176     1.140624919773    -0.378425947412    12.000000000000
         H            0.252739292824     2.499330919773     1.483058052588     1.007825032230
         H            0.253492292824    -2.499315080227     1.482953052588     1.007825032230
         O           -1.837490707176     2.240746919773    -0.848276947412    15.994914619570
         O           -1.836560707176    -2.241248080227    -0.848402947412    15.994914619570
         H            0.085069292824    -1.021877080227     2.563364052588     1.007825032230
         H            0.084778292824     1.021794919773     2.563402052588     1.007825032230
         H           -2.177789707176    -1.340812080227     1.806027052588     1.007825032230
         H           -2.178229707176     1.340051919773     1.806112052588     1.007825032230
         CL           1.968273292824    -1.586737080227    -0.534627947412    34.968852682000
         CL           1.967662292824     1.587327919773    -0.534667947412    34.968852682000
         O           -1.616814707176    -0.000191080227    -1.174173947412    15.994914619570

  Charge       = 0
  Multiplicity = 1
  Basis Set: CC-PVDZ
    Blend: CC-PVDZ
  Basis Set: (CC-PVDZ AUX)
    Blend: CC-PVDZ-JKFIT

    Orbital Energies [Eh]
    ---------------------

    Doubly Occupied:

       1A   -104.854481     2A   -104.854480     3A    -20.635953
       4A    -20.575299     5A    -20.575297     6A    -11.416290
       7A    -11.416271     8A    -11.349318     9A    -11.348309
      10A    -11.308182    11A    -11.306931    12A    -11.306732
      13A    -11.306713    14A    -10.581205    15A    -10.581175
      16A     -8.048807    17A     -8.048805    18A     -8.045183
      19A     -8.045181    20A     -8.045098    21A     -8.045096
      22A     -1.501927    23A     -1.425639    24A     -1.379967
      25A     -1.226582    26A     -1.153010    27A     -1.137683
      28A     -1.072144    29A     -1.018233    30A     -0.949062
      31A     -0.901819    32A     -0.848646    33A     -0.811181
      34A     -0.745893    35A     -0.717152    36A     -0.707750
      37A     -0.686799    38A     -0.675460    39A     -0.673563
      40A     -0.644805    41A     -0.631784    42A     -0.619602
      43A     -0.595095    44A     -0.583833    45A     -0.569385
      46A     -0.562536    47A     -0.562323    48A     -0.497655
      49A     -0.493653    50A     -0.488538    51A     -0.486331
      52A     -0.467894    53A     -0.459718    54A     -0.457056
      55A     -0.362975    56A     -0.356206

  @DF-RHF Final Energy: -1449.95358123942674
    Total Energy =                      -1449.9535812394267396
 Dipole X            :          7.0294632           -7.0783400           -0.0488768
 Dipole Y            :          0.0012220           -0.0013190           -0.0000970
 Dipole Z            :         -9.1028593           11.9380762            2.8352169
 Magnitude           :                                                    2.8356382
  Basis Set: (CC-PVDZ AUX)
    Blend: CC-PVDZ-JKFIT
   @MCSCF Final Energy: -1449.958797216181665

   ==> Energetics <==

    SCF energy =         -1449.953581239426740
    Total MCSCF energy = -1449.958797216181665

   ==> MCSCF root 0 information <==

    MCSCF Root 0 energy =  -1449.958797216181665

   Active Space Natural occupation numbers:

         A   1.983547         A   0.016453

   The 4 most important determinants:

    *   1    0.995851  (    0,    0)  56AX
    *   2   -0.090671  (    1,    1)  57AX
    *   3   -0.005471  (    0,    1)  56AA 57AB
    *   4   -0.005471  (    1,    0)  56AB 57AA

Properties will be evaluated at   0.000000,   0.000000,   0.000000 [a0]

Properties computed using the CASSCF density matrix

 Multipole Moments:

 ------------------------------------------------------------------------------------
     Multipole            Electronic (a.u.)      Nuclear  (a.u.)        Total (a.u.)

 Dipole X            :          7.0113189           -7.0783400           -0.0670210
 Dipole Y            :          0.0018145           -0.0013190            0.0004955
 Dipole Z            :         -9.0673438           11.9380762            2.8707324
 Magnitude           :                                                    2.8715147
  Basis Set: CC-PVDZ
    Blend: CC-PVDZ
  Basis Set: (CC-PVDZ AUX)
    Blend: CC-PVDZ-RI
*** Psi4 exiting successfully. Buy a developer a beer!
