                               Psi4 1.7a1.dev80

  ==> Input File <==

--------------------------------------------------------------------------
import forte

psi4.core.IOManager.shared_object().set_default_path('/data/home/xzzeng/soft/forte/tests/my_test/DAR_3/6-31gd/ts/tmp/')

memory 500 gb

molecule{
C -3.67329600 -1.52057000 -1.29847400
C -2.30906300 -1.56401800 -1.52144600
C -1.44212300 -0.61421400 -0.93024400
C -1.98985700 0.37196300 -0.05836900
C -3.38505500 0.38108200 0.16720100
C -4.21539800 -0.53731800 -0.45196300
C -0.01287700 -0.61140400 -1.15085100
C -1.05910400 1.25904700 0.62021100
C 0.11805100 1.62757600 -0.15184100
C 0.64828100 0.66911600 -1.06081400
C 1.81850900 0.98508200 -1.79061200
H 2.22667700 0.26236700 -2.48954000
C 2.42776300 2.21814800 -1.65562700
C 1.90638100 3.16425600 -0.75633600
C 0.78245600 2.86569200 -0.00697400
H -4.32573800 -2.24090000 -1.78452000
H -1.90476200 -2.31848500 -2.18789800
H -3.81994900 1.13520900 0.81454100
H -5.28850200 -0.49480500 -0.28535800
H 3.30976300 2.45517200 -2.24446000
H 2.38582200 4.13356200 -0.64907600
H 0.39353800 3.60994400 0.67941500
C -0.19407000 -0.24757500 1.89547200
C 0.48658000 -1.18439800 1.08716900
C 1.94978000 -1.10182900 1.00808500
O 2.63097100 -0.13649700 1.30658700
C 0.60290800 -1.71609700 -1.97770400
H 0.19251000 -2.69166300 -1.70513800
H 0.41176600 -1.56107400 -3.04908200
H 1.68223200 -1.77242100 -1.83152600
C -1.60319300 2.29045400 1.59030400
H -0.81873600 2.65514500 2.25989400
H -2.01251000 3.15845900 1.05635900
H -2.40207200 1.88655400 2.21449700
O 2.49623800 -2.26969300 0.55416100
C 3.92845400 -2.28233400 0.50034900
H 4.19994900 -3.26892100 0.12129900
H 4.30165200 -1.49872100 -0.16487600
H 4.35467600 -2.12600700 1.49569400
H 0.05561400 -2.16827900 0.93343900
H 0.44962000 0.48563400 2.37555300
C -1.35973200 -0.74255700 2.72500100
H -1.95486500 0.07031100 3.14988200
H -2.02609400 -1.38580600 2.14175400
H -0.98062800 -1.33638100 3.56794200
units angstrom
}

set globals{
 basis             6-31g(d)
 reference         rhf
# scf_type          pk
 scf_type          df
 d_convergence     8
 e_convergence     10
 mcscf_maxiter           1000
 frozen_docc       [ 12]
 restricted_docc   [ 68]
 active            [ 4]
}

set forte{
  active_space_solver    fci
  correlation_solver     dsrg-mrpt2
  int_type               diskdf
  dsrg_s                 0.5
  frozen_docc            [ 12]
  restricted_docc        [ 68]
  active                 [ 4]
  dsrg_hbar_seq          true
  relax_ref              once
}

#energy('hf')
Emcscf, wfn = energy('casscf',return_wfn=True)
energy('forte',ref_wfn=wfn)

--------------------------------------------------------------------------

    Molecular point group: c1

    Geometry (in Angstrom), charge = 0, multiplicity = 1:

       Center              X                  Y                   Z               Mass
    ------------   -----------------  -----------------  -----------------  -----------------
         C           -3.678298866789    -1.530367925891    -1.284123170420    12.000000000000
         C           -2.314065866789    -1.573815925891    -1.507095170420    12.000000000000
         C           -1.447125866789    -0.624011925891    -0.915893170420    12.000000000000
         C           -1.994859866789     0.362165074109    -0.044018170420    12.000000000000
         C           -3.390057866789     0.371284074109     0.181551829580    12.000000000000
         C           -4.220400866789    -0.547115925891    -0.437612170420    12.000000000000
         C           -0.017879866789    -0.621201925891    -1.136500170420    12.000000000000
         C           -1.064106866789     1.249249074109     0.634561829580    12.000000000000
         C            0.113048133211     1.617778074109    -0.137490170420    12.000000000000
         C            0.643278133211     0.659318074109    -1.046463170420    12.000000000000
         C            1.813506133211     0.975284074109    -1.776261170420    12.000000000000
         H            2.221674133211     0.252569074109    -2.475189170420     1.007825032230
         C            2.422760133211     2.208350074109    -1.641276170420    12.000000000000
         C            1.901378133211     3.154458074109    -0.741985170420    12.000000000000
         C            0.777453133211     2.855894074109     0.007376829580    12.000000000000
         H           -4.330740866789    -2.250697925891    -1.770169170420     1.007825032230
         H           -1.909764866789    -2.328282925891    -2.173547170420     1.007825032230
         H           -3.824951866789     1.125411074109     0.828891829580     1.007825032230
         H           -5.293504866789    -0.504602925891    -0.271007170420     1.007825032230
         H            3.304760133211     2.445374074109    -2.230109170420     1.007825032230
         H            2.380819133211     4.123764074109    -0.634725170420     1.007825032230
         H            0.388535133211     3.600146074109     0.693765829580     1.007825032230
         C           -0.199072866789    -0.257372925891     1.909822829580    12.000000000000
         C            0.481577133211    -1.194195925891     1.101519829580    12.000000000000
         C            1.944777133211    -1.111626925891     1.022435829580    12.000000000000
         O            2.625968133211    -0.146294925891     1.320937829580    15.994914619570
         C            0.597905133211    -1.725894925891    -1.963353170420    12.000000000000
         H            0.187507133211    -2.701460925891    -1.690787170420     1.007825032230
         H            0.406763133211    -1.570871925891    -3.034731170420     1.007825032230
         H            1.677229133211    -1.782218925891    -1.817175170420     1.007825032230
         C           -1.608195866789     2.280656074109     1.604654829580    12.000000000000
         H           -0.823738866789     2.645347074109     2.274244829580     1.007825032230
         H           -2.017512866789     3.148661074109     1.070709829580     1.007825032230
         H           -2.407074866789     1.876756074109     2.228847829580     1.007825032230
         O            2.491235133211    -2.279490925891     0.568511829580    15.994914619570
         C            3.923451133211    -2.292131925891     0.514699829580    12.000000000000
         H            4.194946133211    -3.278718925891     0.135649829580     1.007825032230
         H            4.296649133211    -1.508518925891    -0.150525170420     1.007825032230
         H            4.349673133211    -2.135804925891     1.510044829580     1.007825032230
         H            0.050611133211    -2.178076925891     0.947789829580     1.007825032230
         H            0.444617133211     0.475836074109     2.389903829580     1.007825032230
         C           -1.364734866789    -0.752354925891     2.739351829580    12.000000000000
         H           -1.959867866789     0.060513074109     3.164232829580     1.007825032230
         H           -2.031096866789    -1.395603925891     2.156104829580     1.007825032230
         H           -0.985630866789    -1.346178925891     3.582292829580     1.007825032230

  Charge       = 0
  Multiplicity = 1
  Basis Set: 6-31G(D)
    Blend: 6-31G(D)
  Basis Set: (6-31G(D) AUX)
    Blend: CC-PVDZ-JKFIT

    Orbital Energies [Eh]
    ---------------------

    Doubly Occupied:

       1A    -20.590895     2A    -20.524513     3A    -11.361320
       4A    -11.278605     5A    -11.275023     6A    -11.258426
       7A    -11.250053     8A    -11.244639     9A    -11.240529
      10A    -11.238387    11A    -11.238333    12A    -11.237788
      13A    -11.236158    14A    -11.233913    15A    -11.233476
      16A    -11.231552    17A    -11.230012    18A    -11.228758
      19A    -11.227379    20A    -11.227117    21A    -11.227082
      22A    -11.226332    23A    -11.219618    24A     -1.431487
      25A     -1.328381    26A     -1.186602    27A     -1.139722
      28A     -1.089911    29A     -1.086053    30A     -1.058592
      31A     -1.013375    32A     -1.001566    33A     -0.984482
      34A     -0.978603    35A     -0.974510    36A     -0.922487
      37A     -0.888220    38A     -0.871534    39A     -0.830603
      40A     -0.806686    41A     -0.802709    42A     -0.763136
      43A     -0.742434    44A     -0.728951    45A     -0.708704
      46A     -0.687147    47A     -0.664822    48A     -0.654230
      49A     -0.648481    50A     -0.639745    51A     -0.634023
      52A     -0.618665    53A     -0.608763    54A     -0.604410
      55A     -0.596107    56A     -0.588836    57A     -0.580456
      58A     -0.577282    59A     -0.570903    60A     -0.554708
      61A     -0.546924    62A     -0.542249    63A     -0.533864
      64A     -0.532647    65A     -0.528714    66A     -0.524055
      67A     -0.519340    68A     -0.511256    69A     -0.507652
      70A     -0.495100    71A     -0.492301    72A     -0.482919
      73A     -0.467990    74A     -0.457154    75A     -0.439436
      76A     -0.423934    77A     -0.417883    78A     -0.373091
      79A     -0.331815    80A     -0.307612    81A     -0.296575
      82A     -0.257527

  @DF-RHF Final Energy:  -957.69630796449928
    Total Energy =                       -957.6963079644992831
 Dipole X            :          1.0612039           -1.5504544           -0.4892505
 Dipole Y            :          2.6980186           -3.0365515           -0.3385329
 Dipole Z            :         -4.7461323            4.4475405           -0.2985919
 Magnitude           :                                                    0.6656784
  Basis Set: (6-31G(D) AUX)
    Blend: CC-PVDZ-JKFIT
   @MCSCF Final Energy: -957.744857694758821

   ==> Energetics <==

    SCF energy =         -957.696307964499283
    Total MCSCF energy = -957.744857694758821

   ==> MCSCF root 0 information <==

    MCSCF Root 0 energy =  -957.744857694757457

   Active Space Natural occupation numbers:

         A   1.921868         A   1.889201         A   0.110999
         A   0.077932

   The 20 most important determinants:

    *   1    0.952314  (    0,    0)  81AX 82AX
    *   2   -0.188756  (    1,    1)  81AX 83AX
    *   3   -0.140042  (    4,    4)  82AX 84AX
    *   4   -0.094304  (    2,    3)  81AB 82AA 83AA 84AB
    *   5   -0.094304  (    3,    2)  81AA 82AB 83AB 84AA
    *   6    0.056870  (    0,    5)  81AA 82AA 83AB 84AB
    *   7    0.056870  (    5,    0)  81AB 82AB 83AA 84AA
    *   8   -0.044203  (    2,    2)  82AX 83AX
    *   9    0.041813  (    5,    5)  83AX 84AX
    *  10   -0.041117  (    3,    3)  81AX 84AX
    *  11   -0.037434  (    1,    4)  81AA 82AB 83AA 84AB
    *  12   -0.037434  (    4,    1)  81AB 82AA 83AB 84AA
    *  13   -0.031816  (    1,    2)  81AA 82AB 83AX
    *  14   -0.031816  (    2,    1)  81AB 82AA 83AX
    *  15    0.030463  (    3,    4)  81AA 82AB 84AX

 Dipole X            :          1.1867983           -1.5504544           -0.3636561
 Dipole Y            :          2.6246643           -3.0365515           -0.4118872
 Dipole Z            :         -4.6378682            4.4475405           -0.1903278
 Magnitude           :                                                    0.5814822
  Basis Set: 6-31G(D)
    Blend: 6-31G(D)
  Basis Set: (6-31G(D) AUX)
    Blend: CC-PVDZ-RI
*** Psi4 exiting successfully. Buy a developer a beer!
